
 Working directory              : /tmp/stuart/molpro.524WoKLj45/
 Global scratch directory       : /tmp/stuart/molpro.524WoKLj45/
 Wavefunction directory         : /home/stuart/wfu/
 Main file repository           : /tmp/stuart/molpro.524WoKLj45/

 id        : stuarthope

 Nodes     nprocs
 lskdfn       1
 GA implementation: MPI file
 GA implementation (serial work in mppx): MPI file

 Using customized tuning parameters: mindgm=1; mindgv=20; mindgc=4; mindgr=1; noblas=0; minvec=7
 default implementation of scratch files=df  


 Variables initialized (1042), CPU time= 0.01 sec
 
 
 angstrom
 
 geometry={
 C1;C2,C1,1.33117445;H11,C1,1.08089487,C2,121.44926360;H12,C1,1.08089487,C2,121.44926360,H11,180;H21,C2,1.08089487,C1,121.44926360,H11,0;H22,C2,1.08089487,C1,121.44926360,H12,0
 }
 basis=aug-cc-pvtz
 
 
 
 hf; locali,pipek;mp2
 
 
 put,xml
 {put,xml;noorbitals,nobasis}
 Commands initialized (847), CPU time= 0.01 sec, 718 directives.
 Default parameters read. Elapsed time= 0.09 sec

 Checking input...
 Passed
1


                                         ***  PROGRAM SYSTEM MOLPRO  ***
                                       Copyright, TTI GmbH Stuttgart, 2015
                                    Version 2024.1 linked Mon Jun 17 10:35:03 2024


 **********************************************************************************************************************************
 LABEL *                                                                                                                                                                 
  (12 PROC) 64 bit serial version                                                        DATE: 25-Jul-24          TIME: 12:56:19  
 **********************************************************************************************************************************

 SHA1:             0134236b472f03f1f5189f93707d8671e415b05c
 **********************************************************************************************************************************

 Memory per process:        32 MW
 Total memory per node:     32 MW

 GA preallocation disabled
 GA check disabled

 Variable memory set to 32.0 MW

 ZUNIT=ANG

 SETTING BASIS          =    AUG-CC-PVTZ


 Recomputing integrals since basis changed


 Using spherical harmonics

 Library entry C      S aug-cc-pVTZ          selected for orbital group  1
 Library entry C      P aug-cc-pVTZ          selected for orbital group  1
 Library entry C      D aug-cc-pVTZ          selected for orbital group  1
 Library entry C      F aug-cc-pVTZ          selected for orbital group  1
 Library entry H      S aug-cc-pVTZ          selected for orbital group  2
 Library entry H      P aug-cc-pVTZ          selected for orbital group  2
 Library entry H      D aug-cc-pVTZ          selected for orbital group  2


 PROGRAM * SEWARD (Integral evaluation for generally contracted gaussian basis sets)     Author: Roland Lindh, 1990

 Geometry written to block  1 of record 700

 Orientation using atomic masses  
 Molecule type: Asymmetric top,     Order of principal axis = 2
 Symmetry elements: X,Y,Z
 Rotational constants:      25.0620134     30.1953945    147.4188996 GHz  (calculated with average atomic masses)

 Point group  D2h 



 ATOMIC COORDINATES

 NR  ATOM    CHARGE       X              Y              Z

   1  C1      6.00    0.000000000    0.000000000   -1.257777567
   2  C2      6.00    0.000000000    0.000000000    1.257777567
   3  H11     1.00    0.000000000    1.742543158   -2.323488032
   4  H12     1.00    0.000000000   -1.742543158   -2.323488032
   5  H21     1.00    0.000000000    1.742543158    2.323488032
   6  H22     1.00    0.000000000   -1.742543158    2.323488032

 Bond lengths in Bohr (Angstrom)

 1-2  2.515555135  1-3  2.042595274  1-4  2.042595274  2-5  2.042595274  2-6  2.042595274
     ( 1.331174450)     ( 1.080894870)     ( 1.080894870)     ( 1.080894870)     ( 1.080894870)

 Bond angles

  1-2-5  121.44926360   1-2-6  121.44926360   2-1-3  121.44926360   2-1-4  121.44926360

  3-1-4  117.10147280   5-2-6  117.10147280

 NUCLEAR CHARGE:                   16
 NUMBER OF PRIMITIVE AOS:         242
 NUMBER OF SYMMETRY AOS:          216
 NUMBER OF CONTRACTIONS:          184   (   35Ag  +   18B3u +   27B2u +   12B1g +   35B1u +   18B2g +   27B3g +   12Au  )
 NUMBER OF INNER CORE ORBITALS:     0   (    0Ag  +    0B3u +    0B2u +    0B1g +    0B1u +    0B2g +    0B3g +    0Au  )
 NUMBER OF OUTER CORE ORBITALS:     2   (    1Ag  +    0B3u +    0B2u +    0B1g +    1B1u +    0B2g +    0B3g +    0Au  )
 NUMBER OF VALENCE ORBITALS:       12   (    3Ag  +    1B3u +    2B2u +    0B1g +    3B1u +    1B2g +    2B3g +    0Au  )


 NUCLEAR REPULSION ENERGY   33.43534958

 Eigenvalues of metric

         1 0.643E-04 0.882E-03 0.187E-02 0.253E-02 0.383E-02 0.748E-02 0.933E-02 0.116E-01
         2 0.631E-02 0.168E-01 0.560E-01 0.717E-01 0.123E+00 0.175E+00 0.309E+00 0.355E+00
         3 0.111E-03 0.119E-02 0.201E-02 0.358E-02 0.722E-02 0.997E-02 0.103E-01 0.436E-01
         4 0.778E-02 0.172E-01 0.145E+00 0.222E+00 0.307E+00 0.361E+00 0.719E+00 0.989E+00
         5 0.299E-04 0.341E-04 0.157E-03 0.468E-03 0.114E-02 0.148E-02 0.292E-02 0.440E-02
         6 0.174E-02 0.358E-02 0.773E-02 0.175E-01 0.399E-01 0.543E-01 0.108E+00 0.147E+00
         7 0.479E-05 0.114E-03 0.254E-03 0.999E-03 0.184E-02 0.447E-02 0.693E-02 0.104E-01
         8 0.212E-02 0.862E-02 0.217E-01 0.119E+00 0.213E+00 0.315E+00 0.400E+00 0.581E+00


 Contracted 2-electron integrals neglected if value below      1.0D-12
 AO integral compression algorithm  1   Integral accuracy      1.0D-12

     177.734 MB (compressed) written to integral file ( 72.6%)


 NUMBER OF SORTED TWO-ELECTRON INTEGRALS:   18792672.     BUFFER LENGTH:  32768
 NUMBER OF SEGMENTS:   2  SEGMENT LENGTH:   15999216      RECORD LENGTH: 524288

 Memory used in sort:      16.56 MW

 SORT1 READ    30612720. AND WROTE    18576925. INTEGRALS IN     54 RECORDS. CPU TIME:     0.71 SEC, REAL TIME:     1.05 SEC
 SORT2 READ    18576925. AND WROTE    18792672. INTEGRALS IN    678 RECORDS. CPU TIME:     0.49 SEC, REAL TIME:     0.62 SEC

 FILE SIZES:   FILE 1:   208.6 MBYTE,  FILE 4:   226.6 MBYTE,   TOTAL:    435.1 MBYTE

 OPERATOR DM      FOR CENTER  0  COORDINATES:    0.000000    0.000000    0.000000


 **********************************************************************************************************************************
 DATASETS  * FILE   NREC   LENGTH (MB)   RECORD NAMES
              1      19      138.82       500      610      700      900      950      970     1000      129      960     1100   
                                          VAR    BASINP    GEOM    SYMINP    ZMAT    AOBASIS   BASIS     P2S    ABASIS      S 
                                         1400     1410     1200     1210     1080     1600     1650     1300     1700   
                                           T        V       H0       H01     AOSYM     SMH    MOLCAS    ERIS     OPER   

 PROGRAMS   *        TOTAL       INT
 CPU TIMES  *         3.35      3.20
 REAL TIME  *         4.26 SEC
 DISK USED  *       415.39 MB
 **********************************************************************************************************************************


 Program * Restricted Hartree-Fock

 Orbital guess generated from atomic densities. Full valence occupancy:    4   1   2   0   4   1   2   0


 Initial occupancy:   3   1   1   0   2   0   1   0

 NELEC=   16   SYM=1   MS2= 0   THRE=1.0D-08   THRD=3.2D-06   THRG=3.2D-06  HFMA2=F  DIIS_START=2   DIIS_MAX=10   DIIS_INCORE=F

 Level shifts:    0.00 (CLOSED)    0.00 (OPEN)    0.30 (GAP_MIN)

 ITER           ETOT              DE          GRAD        DDIFF     DIIS  NEXP   TIME(IT)  TIME(TOT)  DIAG
   1      -78.04112072     -78.04112072     0.00D+00     0.12D+00     0     0       0.03      0.06    start
   2      -78.06213856      -0.02101785     0.82D-02     0.12D-01     1     0       0.03      0.09    diag
   3      -78.06445666      -0.00231810     0.29D-02     0.34D-02     2     0       0.03      0.12    diag
   4      -78.06478227      -0.00032560     0.84D-03     0.16D-02     3     0       0.03      0.15    diag
   5      -78.06478819      -0.00000592     0.10D-03     0.21D-03     4     0       0.04      0.19    diag
   6      -78.06478841      -0.00000022     0.17D-04     0.26D-04     5     0       0.03      0.22    diag
   7      -78.06478842      -0.00000001     0.40D-05     0.79D-05     6     0       0.03      0.25    diag
   8      -78.06478842      -0.00000000     0.63D-06     0.12D-05     7     0       0.03      0.28    fixocc
   9      -78.06478842      -0.00000000     0.69D-07     0.25D-06     0     0       0.03      0.31    diag

 Final occupancy:   3   1   1   0   2   0   1   0

 !RHF STATE 1.1 Energy                -78.064788424320
  RHF One-electron energy            -170.184108339121
  RHF Two-electron energy              58.683970335903
  RHF Kinetic energy                   77.939283341012
  RHF Nuclear energy                   33.435349578897
  RHF Virial quotient                  -1.001610293012

 !RHF STATE 1.1 Dipole moment           0.00000000     0.00000000     0.00000000
 Dipole moment /Debye                   0.00000000     0.00000000     0.00000000

 Orbital energies:

           1.1          2.1          3.1          4.1          5.1
    -11.231167    -1.035027    -0.588558     0.032466     0.104957

           1.2          2.2          3.2
     -0.377527     0.096616     0.314478

           1.3          2.3          3.3
     -0.644664     0.042363     0.146986

           1.4          2.4
      0.239886     0.451801

           1.5          2.5          3.5          4.5
    -11.229433    -0.793597     0.040619     0.120150

           1.6          2.6
      0.092083     0.174822

           1.7          2.7          3.7
     -0.508111     0.060332     0.174148

           1.8          2.8
      0.292393     0.594477


 HOMO      1.2    -0.377527 =     -10.2730eV
 LUMO      4.1     0.032466 =       0.8834eV
 LUMO-HOMO         0.409993 =      11.1565eV

 Orbitals saved in record  2100.2


 **********************************************************************************************************************************
 DATASETS  * FILE   NREC   LENGTH (MB)   RECORD NAMES
              1      19      138.82       500      610      700      900      950      970     1000      129      960     1100   
                                          VAR    BASINP    GEOM    SYMINP    ZMAT    AOBASIS   BASIS     P2S    ABASIS      S 
                                         1400     1410     1200     1210     1080     1600     1650     1300     1700   
                                           T        V       H0       H01     AOSYM     SMH    MOLCAS    ERIS     OPER   

              2       4        0.52       700     1000      520     2100   
                                         GEOM     BASIS   MCVARS     RHF  

 PROGRAMS   *        TOTAL    HF-SCF       INT
 CPU TIMES  *         3.66      0.31      3.20
 REAL TIME  *         4.62 SEC
 DISK USED  *       415.39 MB
 **********************************************************************************************************************************


 Pipek-Mezey Localization, Author: H.-J. Werner

 Molecular orbitals read from record     2100.2  Type=RHF/CANONICAL  
 Density matrix read from record         2100.2  Type=RHF/CHARGE  
 Fock matrix read from record            2100.2  Type=RHF/TOTAL  

 Orbital groups in symmetry 1:         0  2  2
 Orbital groups in symmetry 2:         2
 Orbital groups in symmetry 3:         2
 Orbital groups in symmetry 5:         0  2
 Orbital groups in symmetry 7:         2

 Pipek-Mezey localisation finished (npass=  9  nrot=      1  Thresh=  0.10D-08  CPU=   0.00 sec)

 Localized orbitals saved to record      2100.2  (orbital set 2)


 **********************************************************************************************************************************
 DATASETS  * FILE   NREC   LENGTH (MB)   RECORD NAMES
              1      19      138.82       500      610      700      900      950      970     1000      129      960     1100   
                                          VAR    BASINP    GEOM    SYMINP    ZMAT    AOBASIS   BASIS     P2S    ABASIS      S 
                                         1400     1410     1200     1210     1080     1600     1650     1300     1700   
                                           T        V       H0       H01     AOSYM     SMH    MOLCAS    ERIS     OPER   

              2       4        0.56       700     1000      520     2100   
                                         GEOM     BASIS   MCVARS     RHF  

 PROGRAMS   *        TOTAL    LOCALI    HF-SCF       INT
 CPU TIMES  *         3.66      0.00      0.31      3.20
 REAL TIME  *         4.63 SEC
 DISK USED  *       415.39 MB
 **********************************************************************************************************************************


 PROGRAM * MP2 (Closed-shell)     Authors: C. Hampel, H.-J. Werner, 1991, M. Deegan, P.J. Knowles, 1992


 Convergence thresholds:  THRVAR = 1.00D-08  THRDEN = 1.00D-06

 Number of core orbitals:           2 (   1   0   0   0   1   0   0   0 )
 Number of closed-shell orbitals:   6 (   2   1   1   0   1   0   1   0 )
 Number of external orbitals:     176 (  32  17  26  12  33  18  26  12 )

 Molecular orbitals read from record     2100.2  Type=RHF/CANONICAL  

 Number of N-1 electron functions:               6
 Number of N-2 electron functions:              21
 Number of singly external CSFs:               166
 Number of doubly external CSFs:             73734
 Total number of CSFs:                       73901

 Length of J-op  integral file:               0.00 MB
 Length of K-op  integral file:               0.40 MB

 Integral transformation finished. Total CPU:   0.08 sec, npass=  1  Memory used:   0.17 MW

 Memory needed for MP2:                      0.02 MW

 SCS-MP2 correlation energy:           -0.345623209836   (PS=  1.200000  PT=  0.333333)
 SCS-MP2 total energy:                -78.410411634156


  Reference energy                    -78.064788424320
  MP2 singlet pair energy              -0.232326435223
  MP2 triplet pair energy              -0.107407747878
  MP2 correlation energy               -0.339734183101

 !MP2 total energy                    -78.404522607421


 **********************************************************************************************************************************
 DATASETS  * FILE   NREC   LENGTH (MB)   RECORD NAMES
              1      20      140.00       500      610      700      900      950      970     1000      129      960     1100   
                                          VAR    BASINP    GEOM    SYMINP    ZMAT    AOBASIS   BASIS     P2S    ABASIS      S 
                                         1400     1410     1200     1210     1080     1600     1650     1300     1700     1380   
                                           T        V       H0       H01     AOSYM     SMH    MOLCAS    ERIS     OPER     JKOP   

              2       4        0.56       700     1000      520     2100   
                                         GEOM     BASIS   MCVARS     RHF  

 PROGRAMS   *        TOTAL       MP2    LOCALI    HF-SCF       INT
 CPU TIMES  *         3.78      0.12      0.00      0.31      3.20
 REAL TIME  *         4.77 SEC
 DISK USED  *       415.39 MB
 **********************************************************************************************************************************

 Dump information in style XML to xml output                                                                      


 **********************************************************************************************************************************

 Dump information in style XML to xml output                                                                      

 Orbitals will not be exported.

 **********************************************************************************************************************************

 MP2/aug-cc-pVTZ energy=    -78.404522607421

             MP2          HF-SCF
    -78.40452261    -78.06478842
 **********************************************************************************************************************************
 Molpro calculation terminated
